<?xml version="1.0" encoding="UTF-8"?>

<!-- generated on Fri 10 Jan 2020 03:27:07 PM EST by Eclipse SUMO GUI Version 1.3.1
<configuration xmlns:xsi="http://www.w3.org/2001/XMLSchema-instance" xsi:noNamespaceSchemaLocation="http://sumo.dlr.de/xsd/sumoConfiguration.xsd">

    <input>
        <net-file value="final.net.xml"/>
        <route-files value="trips.trips.xml,route.rou.xml"/>
        <additional-files value="stopCarta.add.xml"/>
    </input>

    <output>
        <tripinfo-output value="tripInfo"/>
    </output>

    <time>
        <begin value="0"/>
        <end value="86400"/>
    </time>

    <processing>
        <ignore-route-errors value="true"/>
    </processing>

    <routing>
        <device.rerouting.adaptation-steps value="180"/>
    </routing>

    <report>
        <verbose value="true"/>
        <duration-log.statistics value="true"/>
        <no-step-log value="true"/>
    </report>

    <traci_server>
        <remote-port value="49147"/>
    </traci_server>

    <gui_only>
        <gui-settings-file value="gui.view.xml"/>
    </gui_only>

</configuration>
-->

<tripinfos xmlns:xsi="http://www.w3.org/2001/XMLSchema-instance" xsi:noNamespaceSchemaLocation="http://sumo.dlr.de/xsd/tripinfo_file.xsd">
</tripinfos>
